
  ___ ___ ___ _ _ _
 |   |   |_  | | | |
 | | | | | . | | | |
 |__ |  _|___|_____|  24.1.0
 |___|_|

User:   tha@33408-p01
Date:   Tue May  7 13:33:09 2024
Arch:   x86_64
Pid:    1733385
CWD:    /mnt/d/work/code_server/thmd/1devtool/dev_MD/2_ASE_GPAW/test_file
Python: 3.11.9
gpaw:   /home/tha/miniconda3/envs/py11deepmd/lib/python3.11/site-packages/gpaw
_gpaw:  /home/tha/miniconda3/envs/py11deepmd/lib/python3.11/site-packages/
        _gpaw.cpython-311-x86_64-linux-gnu.so
ase:    /home/tha/miniconda3/envs/py11deepmd/lib/python3.11/site-packages/ase (version 3.22.1)
numpy:  /home/tha/miniconda3/envs/py11deepmd/lib/python3.11/site-packages/numpy (version 1.26.4)
scipy:  /home/tha/miniconda3/envs/py11deepmd/lib/python3.11/site-packages/scipy (version 1.13.0)
libxc:  6.2.2
units:  Angstrom and eV
cores: 1
OpenMP: False
OMP_NUM_THREADS: 1

Input parameters:
  kpts: {gamma: False,
         size: (2, 2, 1)}
  mode: {ecut: 550.0,
         name: pw}
  occupations: {fixmagmom: False,
                name: fermi-dirac,
                width: 0.01}
  xc: PBE

System changes: positions, numbers, cell, pbc, initial_charges, initial_magmoms

Initialize ...

species:
  H:
    name: Hydrogen
    id: d65de229564ff8ea4db303e23b6d1ecf
    Z: 1.0
    valence: 1
    core: 0
    charge: 0.0
    file: /home/tha/miniconda3/envs/py11deepmd/share/gpaw/gpaw-setups-24.1.0/H.PBE.gz
    compensation charges: {type: gauss,
                           rc: 0.15,
                           lmax: 2}
    cutoffs: {filter: 0.85,
              core: 0.53}
    valence states:
      #              energy  rcut
      - 1s(1.00)    -6.494   0.476
      -  s          20.717   0.476
      -  p           0.000   0.476

    # Using partial waves for H as LCAO basis

  C:
    name: Carbon
    id: 4aa54d4b901d75f77cc0ea3eec22967b
    Z: 6.0
    valence: 4
    core: 2
    charge: 0.0
    file: /home/tha/miniconda3/envs/py11deepmd/share/gpaw/gpaw-setups-24.1.0/C.PBE.gz
    compensation charges: {type: gauss,
                           rc: 0.20,
                           lmax: 2}
    cutoffs: {filter: 1.14,
              core: 1.14}
    valence states:
      #              energy  rcut
      - 2s(2.00)   -13.751   0.635
      - 2p(2.00)    -5.284   0.635
      -  s          13.461   0.635
      -  p          21.927   0.635
      -  d           0.000   0.635

    # Using partial waves for C as LCAO basis

Reference energy: -1077.588764  # eV

Spin-paired calculation

Convergence criteria:
 Maximum [total energy] change in last 3 cyles: 0.0005 eV / valence electron
 Maximum integral of absolute [dens]ity change: 0.0001 electrons / valence electron
 Maximum integral of absolute [eigenst]ate change: 4e-08 eV^2 / valence electron
 Maximum number of scf [iter]ations: 333
 (Square brackets indicate name in SCF output, whereas a 'c' in
 the SCF output indicates the quantity has converged.)

Symmetries present (total): 1

  ( 1  0  0)
  ( 0  1  0)
  ( 0  0  1)

4 k-points: 2 x 2 x 1 Monkhorst-Pack grid + [0.000000,0.000000,1/2]
2 k-points in the irreducible part of the Brillouin zone
       k-points in crystal coordinates                weights
   0:     0.25000000   -0.25000000    0.50000000          2/4
   1:     0.25000000    0.25000000    0.50000000          2/4

Wave functions: Plane wave expansion
  Cutoff energy: 550.000 eV
  Number of coefficients (min, max): 27589, 27620
  Pulay-stress correction: 0.000000 eV/Ang^3 (de/decut=0.000000)
  Using Numpy's FFT
  ScaLapack parameters: grid=1x1, blocksize=None
  Wavefunction extrapolation:
    Improved wavefunction reuse through dual PAW basis

Occupation numbers: Fermi-Dirac:
  width: 0.0100  # eV


Eigensolver
   Davidson(niter=2)

Densities:
  Coarse grid: 54*54*54 grid
  Fine grid: 108*108*108 grid
  Total Charge: 0.000000

Density mixing:
  Method: separate
  Backend: pulay
  Linear mixing parameter: 0.05
  old densities: 5
  Damping of long wavelength oscillations: 50

Hamiltonian:
  XC and Coulomb potentials evaluated on a 108*108*108 grid
  Using the PBE Exchange-Correlation functional
  External potential:
    NoExternalPotential


XC parameters: PBE with 2 nearest neighbor stencil

Memory estimate:
  Process memory now: 458.95 MiB
  Calculator: 127.44 MiB
    Density: 79.88 MiB
      Arrays: 31.24 MiB
      Localized functions: 36.63 MiB
      Mixer: 12.01 MiB
    Hamiltonian: 21.32 MiB
      Arrays: 20.42 MiB
      XC: 0.00 MiB
      Poisson: 0.00 MiB
      vbar: 0.89 MiB
    Wavefunctions: 26.25 MiB
      Arrays psit_nG: 6.74 MiB
      Eigensolver: 5.49 MiB
      Projections: 0.01 MiB
      Projectors: 7.16 MiB
      PW-descriptor: 6.85 MiB

Total number of cores used: 1

Number of atoms: 5
Number of atomic orbitals: 8
Number of bands in calculation: 8
Number of valence electrons: 8
Bands to converge: occupied

... initialized

Initializing position-dependent things.

Density initialized from atomic densities
Creating initial wave functions:
  8 bands from LCAO basis set





        H  H
          C
         H  H





Positions:
   0 H      4.652550    3.496790    4.427770    ( 0.0000,  0.0000,  0.0000)
   1 H      3.923590    4.744500    4.967720    ( 0.0000,  0.0000,  0.0000)
   2 H      5.106440    5.638010    4.434270    ( 0.0000,  0.0000,  0.0000)
   3 H      5.716490    4.388670    3.761250    ( 0.0000,  0.0000,  0.0000)
   4 C      4.846590    4.569000    4.395050    ( 0.0000,  0.0000,  0.0000)

Unit cell:
           periodic     x           y           z      points  spacing
  1. axis:    yes    9.706486    0.000000    0.000000    54     0.1797
  2. axis:    yes    0.024438    9.821067    0.000000    54     0.1819
  3. axis:    yes   -0.098026   -0.052623    9.882967    54     0.1830

  Lengths:   9.706486   9.821098   9.883593
  Angles:   90.306476  90.568270  89.857428

Effective grid spacing dv^(1/3) = 0.1815

     iter     time        total  log10-change:
                         energy   eigst   dens
iter:   1 13:33:11   -22.385205
iter:   2 13:33:12   -21.619863   -0.62  -0.47
iter:   3 13:33:13   -18.811150   -0.16  -0.51
iter:   4 13:33:14   -18.911403   -1.74  -0.96
iter:   5 13:33:15   -19.113528   -1.22  -0.95
iter:   6 13:33:16   -18.811481   -0.76  -0.98
iter:   7 13:33:17   -18.812819   -2.19  -1.71
iter:   8 13:33:18   -18.808941c  -3.32  -1.67
iter:   9 13:33:19   -18.810645c  -3.79  -1.67
iter:  10 13:33:20   -18.802980   -2.91  -1.68
iter:  11 13:33:21   -18.800734   -3.14  -1.98
iter:  12 13:33:22   -18.800540c  -3.77  -2.45
iter:  13 13:33:23   -18.800551c  -5.02  -2.97
iter:  14 13:33:24   -18.800549c  -6.21  -3.22
iter:  15 13:33:25   -18.800548c  -6.69  -3.36
iter:  16 13:33:26   -18.800552c  -6.11  -3.36
iter:  17 13:33:27   -18.800549c  -5.83  -3.53
iter:  18 13:33:28   -18.800549c  -7.48c -4.37c

Converged after 18 iterations.

Dipole moment: (0.003742, -0.002779, 0.001154) |e|*Ang

Energy contributions relative to reference atoms: (reference = -1077.588764)

Kinetic:        +18.378262
Potential:      -19.318382
External:        +0.000000
XC:             -17.884461
Entropy (-ST):   -0.000000
Local:           +0.024031
SIC:             +0.000000
--------------------------
Free energy:    -18.800549
Extrapolated:   -18.800549

Showing all kpts
 Kpt  Band  Eigenvalues  Occupancy
  0     2    -11.40873    2.00000
  0     3     -4.06468    2.00000
  0     4     -2.10456    0.00000
  0     5     -0.46859    0.00000

  1     2    -11.40873    2.00000
  1     3     -4.06467    2.00000
  1     4     -2.10448    0.00000
  1     5     -0.46903    0.00000


Fermi level: -3.35355

Gap: 1.960 eV
Transition (v -> c):
  (s=0, k=1, n=3, [0.25, 0.25, 0.50]) -> (s=0, k=0, n=4, [0.25, -0.25, 0.50])

Forces in eV/Ang:
  0 H     1.04682   -0.55330    1.66935
  1 H    -1.00384    0.25662   -1.64536
  2 H     1.00930   -0.29079    1.65307
  3 H    -0.84901    0.15870   -1.82845
  4 C    -0.20348    0.42858    0.15109

Stress tensor:
    -0.000174     0.000070    -0.000031
     0.000070    -0.000239    -0.000020
    -0.000031    -0.000020    -0.000252
Timing:                              incl.     excl.
-----------------------------------------------------------
Forces:                              0.278     0.278   0.7% |
Hamiltonian:                         0.397     0.005   0.0% |
 Atomic:                             0.046     0.000   0.0% |
  XC Correction:                     0.045     0.045   0.1% |
 Calculate atomic Hamiltonians:      0.040     0.040   0.1% |
 Communicate:                        0.000     0.000   0.0% |
 Initialize Hamiltonian:             0.001     0.001   0.0% |
 Poisson:                            0.003     0.003   0.0% |
 XC 3D grid:                         0.303     0.303   0.8% |
LCAO initialization:                 0.129     0.014   0.0% |
 LCAO eigensolver:                   0.007     0.000   0.0% |
  Calculate projections:             0.000     0.000   0.0% |
  DenseAtomicCorrection:             0.000     0.000   0.0% |
  Distribute overlap matrix:         0.000     0.000   0.0% |
  Orbital Layouts:                   0.000     0.000   0.0% |
  Potential matrix:                  0.006     0.006   0.0% |
  Sum over cells:                    0.000     0.000   0.0% |
 LCAO to grid:                       0.099     0.099   0.3% |
 Set positions (LCAO WFS):           0.009     0.001   0.0% |
  Basic WFS set positions:           0.000     0.000   0.0% |
  Basis functions set positions:     0.000     0.000   0.0% |
  P tci:                             0.005     0.005   0.0% |
  ST tci:                            0.001     0.001   0.0% |
  mktci:                             0.002     0.002   0.0% |
PWDescriptor:                        0.014     0.014   0.0% |
SCF-cycle:                          18.526     0.014   0.0% |
 Davidson:                           9.303     0.902   2.4% ||
  Apply H:                           1.964     1.937   5.1% |-|
   HMM T:                            0.027     0.027   0.1% |
  Subspace diag:                     2.106     0.002   0.0% |
   calc_h_matrix:                    2.036     0.037   0.1% |
    Apply H:                         1.999     1.971   5.2% |-|
     HMM T:                          0.028     0.028   0.1% |
   diagonalize:                      0.007     0.007   0.0% |
   rotate_psi:                       0.061     0.061   0.2% |
  calc. matrices:                    4.214     0.236   0.6% |
   Apply H:                          3.979     3.920  10.3% |---|
    HMM T:                           0.059     0.059   0.2% |
  diagonalize:                       0.011     0.011   0.0% |
  rotate_psi:                        0.106     0.106   0.3% |
 Density:                            2.429     0.000   0.0% |
  Atomic density matrices:           0.009     0.009   0.0% |
  Mix:                               1.405     1.405   3.7% ||
  Multipole moments:                 0.002     0.002   0.0% |
  Pseudo density:                    1.013     1.013   2.7% ||
   Symmetrize density:               0.000     0.000   0.0% |
 Hamiltonian:                        6.768     0.060   0.2% |
  Atomic:                            0.817     0.008   0.0% |
   XC Correction:                    0.809     0.809   2.1% ||
  Calculate atomic Hamiltonians:     0.710     0.710   1.9% ||
  Communicate:                       0.000     0.000   0.0% |
  Poisson:                           0.048     0.048   0.1% |
  XC 3D grid:                        5.133     5.133  13.4% |----|
 Orthonormalize:                     0.013     0.000   0.0% |
  calc_s_matrix:                     0.001     0.001   0.0% |
  inverse-cholesky:                  0.000     0.000   0.0% |
  projections:                       0.010     0.010   0.0% |
  rotate_psi_s:                      0.002     0.002   0.0% |
Set symmetry:                        0.000     0.000   0.0% |
Stress:                              2.680     0.000   0.0% |
 Stress tensor:                      2.680     2.680   7.0% |--|
Other:                              16.182    16.182  42.4% |----------------|
-----------------------------------------------------------
Total:                                        38.206 100.0%

Memory usage: 458.95 MiB
Date: Tue May  7 13:33:09 2024
