(written by ASE)

5 atoms
2 atom types

0.0      9.2582360000000001  xlo xhi
0.0      9.2582360000000001  ylo yhi
0.0      9.2582360000000001  zlo zhi

Masses

     1      12.010999996910238 # C
     2      1.0079999997406976 # H

Atoms # atomic

     1   1      4.6291180000000001      4.6291180000000001      4.6291180000000001
     2   2      5.2582360000000001      5.2582360000000001      5.2582360000000001
     3   2                       4                       4      5.2582360000000001
     4   2      5.2582360000000001                       4                       4
     5   2                       4      5.2582360000000001                       4
