ITEM: TIMESTEP
240
ITEM: NUMBER OF ATOMS
5
ITEM: BOX BOUNDS xy xz yz pp pp pp
-9.8025753300000004e-02 9.7309244997000004e+00 2.4438361600000000e-02
-5.2623482100000001e-02 9.8210672973000008e+00 -9.8025753300000004e-02
0.0000000000000000e+00 9.8829666736000004e+00 -5.2623482100000001e-02
ITEM: ATOMS id type x y z fx fy fz
1 1 4.65255 3.49679 4.42777 -0.144013 -0.264858 -0.0293463
2 1 3.92359 4.7445 4.96772 0.115898 0.0821619 -0.0790613
5 2 4.84659 4.569 4.39505 -0.00414137 0.264724 0.293255
4 1 5.71649 4.38867 3.76125 0.190668 0.027508 -0.157418
3 1 5.10644 5.63801 4.43427 -0.158412 -0.109536 -0.0274297
