(written by ASE)

2 atoms
1 atom types

0.0      3.8395898218429529  xlo xhi
0.0      3.3251823258281639  ylo yhi
0.0      3.1350119616996679  zlo zhi
     1.9197949109214762      1.9197949109214762      1.1083941086093883  xy xz yz

Masses

     1      28.084999992775295 # Si

Atoms # atomic

     1   1                       0                       0                       0
     2   1      1.9197949109214765      1.1083941086093883     0.78375299042491686
