(written by ASE)

2 atoms
1 atom types

0.0      3.8399737808251366  xlo xhi
0.0      3.3255148440607467  ylo yhi
0.0       3.135325462895838  zlo zhi
     1.9199868904125681      1.9199868904125685      1.1085049480202491  xy xz yz

Masses

     1      28.084999992775295 # Si

Atoms # atomic

     1   1 -0.00019197999999999999             -0.00016626 -0.00015674999999999999
     2   1      1.9197900000000001      1.1083400000000001     0.78367500000000012
