datafile (written by JARVIS-Tools) 

2 	 atoms 
1  atom types
0.0 3.83959  xlo xhi
0.0 3.325182582975703  ylo yhi
0.0 3.1350122283847957  zlo zhi
1.919794821842957 1.919794821842957 1.1083941257525523  xy xz yz


Atoms 

     1   1 0.000000 0.0 0.0 0.0
     2   1 0.000000 1.919794821842957 1.1083941257525523 0.7837530207300419
