8
Lattice="-3.159883685019072 3.1598836850189906 3.159883685018965 3.15988368501908 -3.159883685018971 3.159883685018957 3.159883685019086 3.159883685018971 -3.159883685018957" Properties=species:S:1:pos:R:3:ref_forces:R:3 ref_energy=-90.08853652890342 stress="0.0013321733048773854 -6.63645698389723e-18 -6.63645698389723e-18 -6.63645698389723e-18 0.0013321733048774723 -1.1199021160326575e-17 -6.63645698389723e-18 -1.1199021160326575e-17 0.0013321733048774899" pbc="T T T"
Mo       0.00000000       0.00000000       0.00000000       0.00000000      -0.00000000       0.00000000
Mo       1.57994184       1.57994184      -1.57994184       0.00000000      -0.00000000       0.00000000
Mo       1.57994184      -1.57994184       1.57994184       0.00000000      -0.00000000       0.00000000
Mo       3.15988369      -0.00000000      -0.00000000      -0.00000000       0.00000000      -0.00000000
Mo      -1.57994184       1.57994184       1.57994184       0.00000000       0.00000000       0.00000000
Mo       0.00000000       3.15988369       0.00000000       0.00000000       0.00000000       0.00000000
Mo       0.00000000       0.00000000       3.15988369       0.00000000       0.00000000      -0.00000000
Mo       1.57994184       1.57994184       1.57994184      -0.00000000      -0.00000000       0.00000000
