12
Lattice="6.5034310451596475 0.0 0.0 -3.2517155225798238 5.632293232945471 0.0 0.0 0.0 36.59" Properties=species:S:1:pos:R:3:forces:R:3 energy=-80.67800694673812 stress="-2.143301122126606e-06 0.00018622914228715452 0.0002874983503159202 0.00018622914228715452 0.00022400478459271272 -0.00017428782142080095 0.0002874983503159202 -0.00017428782142080095 0.00024344359420418188" pbc="T T T"
Mo       0.27098117       0.46936633      18.29500020       0.00013314       0.00022733       0.00000096
Se       1.90072779       1.40571552      20.02751835      -0.02747704       0.01663206      -0.01269735
Se       0.26708272       2.34914671      16.56248189       0.02747406      -0.01663534       0.01269920
Mo      -1.35487766       3.28550347      18.29500058       0.00011507      -0.00006306       0.00001440
Se       0.27484005       4.22188049      20.02749525      -0.02713642       0.01642537      -0.01254229
Se      -1.35874535       5.16527473      16.56250520       0.02713647      -0.01642533       0.01254537
Mo       3.52268890       0.46936005      18.29499982      -0.00011376       0.00004962      -0.00001394
Se       5.15241207       1.40573172      20.02749501      -0.02712489       0.01644651      -0.01254459
Se       3.51882931       2.34913020      16.56250538       0.02712383      -0.01644587       0.01254844
Mo       1.89682930       3.28549672      18.29500019      -0.00014108      -0.00023176       0.00000010
Se       3.52658353       4.22186336      20.02751151      -0.02747711       0.01663156      -0.01276671
Se       1.89294260       5.16529229      16.56248872       0.02747309      -0.01663661       0.01276858
