ITEM: TIMESTEP
3
ITEM: NUMBER OF ATOMS
8
ITEM: BOX BOUNDS pp pp pp
-3.7456247490079838e-06 7.2300037456247495e+00
-3.7456247490461134e-06 7.2300037456247495e+00
-3.7456247490650204e-06 7.2300037456247495e+00
ITEM: ATOMS id type mass xu yu zu fx fy fz
1 1 63.546 -3.74562e-06 -3.74562e-06 -3.74562e-06 -1.14353e-14 -1.14769e-14 -1.1522e-14
2 1 63.546 -3.74562e-06 1.8075 1.8075 -1.249e-14 -4.44089e-16 -4.30211e-16
3 1 63.546 1.8075 -3.74562e-06 1.8075 -4.996e-16 -1.23226e-14 -2.64112e-16
4 1 63.546 1.8075 1.8075 -3.74562e-06 -5.55112e-16 -3.53884e-16 -1.25204e-14
5 1 63.546 -3.74562e-06 -3.74562e-06 3.615 -1.2268e-14 -1.21708e-14 -1.5335e-15
6 1 63.546 -3.74562e-06 1.8075 5.4225 -1.18239e-14 3.19189e-16 1.36835e-14
7 1 63.546 1.8075 -3.74562e-06 5.4225 2.498e-16 -1.18508e-14 1.36904e-14
8 1 63.546 1.8075 1.8075 3.615 2.22045e-16 2.28983e-16 -1.39125e-15
