(written by ASE)

3 atoms
3 atom types

0.0      3.1800000000000002  xlo xhi
0.0      2.7539607840345148  ylo yhi
0.0                   13.17  zlo zhi
    -1.5900000000000001                       0                       0  xy xz yz

Masses

     1      32.059999991752747 # S
     2      95.949999975317411 # Mo
     3      32.059999991752747 # S

Atoms # atomic

     1   2                       0                       0      6.5850000000000009
     2   1      1.5900000000000001     0.91798692801150483      8.1700000000000017
     3   1      1.5900000000000001     0.91798692801150483      5.0000000000000009
