16
Lattice="0.0 5.432114844309289 5.432114844309289 5.432114844309286 0.0 5.432114844309286 5.432114844309287 5.432114844309288 2.2626455141574916e-16" Properties=species:S:1:pos:R:3:ref_forces:R:3 ref_energy=0.0 pbc="T T T"
Si       0.00000000       0.00000000       0.00000000      -0.00000000       0.00000000       0.00000000
Si       1.35802798       1.35803085       1.35803053      -0.00000000       0.00000000       0.00000000
Si       2.71605570       2.71605857       0.00000281       0.00000000      -0.00000000      -0.00000000
Si       4.07408885       4.07408473       1.35803037       0.00000000      -0.00000000      -0.00000000
Si       2.71605552       0.00000293       2.71605845       0.00000000      -0.00000000      -0.00000000
Si       4.07408753       1.35802794       4.07408716      -0.00000000      -0.00000000      -0.00000000
Si       5.43211524       2.71605565       2.71605944       0.00000000       0.00000000       0.00000000
Si       6.79014023       4.07408589       4.07408292       0.00000000       0.00000000      -0.00000000
Si       0.00000000       2.71605755       2.71605755       0.00000000      -0.00000000      -0.00000000
Si       1.35802798       4.07408457       4.07408424       0.00000000      -0.00000000      -0.00000000
Si       2.71605570       5.43211228       2.71605653       0.00000000       0.00000000       0.00000000
Si       4.07408885       6.79014551       4.07409115      -0.00000000       0.00000000       0.00000000
Si       2.71605552       2.71605664       5.43211217      -0.00000000       0.00000000       0.00000000
Si       4.07408753       4.07408872       6.79014794      -0.00000000       0.00000000       0.00000000
Si       5.43211524       5.43211644       5.43212023      -0.00000000       0.00000000       0.00000000
Si       6.79014023       6.79014668       6.79014370      -0.00000000      -0.00000000      -0.00000000
