3
Lattice="6.685222733778327 0.0 0.0 -3.3426113668891637 5.5138787789308825 0.0 0.0 0.0 6.16628910792779" Properties=species:S:1:pos:R:3:momenta:R:3:forces:R:3 stress="0.064001081584408 0.00018960105222973097 6.234806543334146e-05 0.00018960105222973097 0.010603295335205947 0.01138274474461979 6.234806543334146e-05 0.01138274474461979 0.033932608106790246" energy=-87.50511672376267 pbc="T T T" timestep=10
Mo       0.00000000       0.00000000       3.08314455      -0.48178956       3.18459932       0.14035658      -0.00000002      -0.00000004       0.00000006
S        1.67132121       0.91898834       4.66194359      -0.46677606      -2.00063308      -2.35378966      -0.00219223      -0.18431043      -0.50839116
S        0.00000000       1.83797668       1.50434552      -0.91708756       2.72938297       1.14097786       0.00239961       0.18455348       0.50845134
