(written by ASE)

5 atoms
3 atom types

0.0      9.7064861381000007  xlo xhi
0.0      9.8210672973000008  ylo yhi
0.0      9.8829666736000004  zlo zhi
           0.0244383616   -0.098025753300000004   -0.052623482100000001  xy xz yz

Masses

     1      1.0079999997406976 # H
     2      12.010999996910238 # C
     3      1.0079999997406976 # H

Atoms # atomic

     1   1      4.6525499999999997      3.4967899999999998      4.4277699999999998
     2   1      3.9235899999999999      4.7445000000000004      4.9677199999999999
     3   3      5.1064400000000001      5.6380100000000004      4.4342699999999997
     4   1      5.7164900000000003      4.3886700000000003                 3.76125
     5   2                 4.84659                   4.569      4.3950500000000003
