5
Lattice="9.7064861381 0.0 0.0 0.0244383616 9.8210672973 0.0 -0.0980257533 -0.0526234821 9.8829666736" Properties=species:S:1:pos:R:3:type:I:1:forces:R:3 timestep=240 energy=0.0 pbc="T T T"
H        4.65255000       3.49679000       4.42777000        1      -0.14401300      -0.26485800      -0.02934630
H        3.92359000       4.74450000       4.96772000        1       0.11589800       0.08216190      -0.07906130
H        5.10644000       5.63801000       4.43427000        3      -0.15841200      -0.10953600      -0.02742970
H        5.71649000       4.38867000       3.76125000        1       0.19066800       0.02750800      -0.15741800
C        4.84659000       4.56900000       4.39505000        2      -0.00414137       0.26472400       0.29325500
